file 67889600 1511541404                                        
version 2
run General-0-20171124-17:36:36-32220
attr configname General
attr datetime 20171124-17:36:36
attr experiment General
attr inifile omnetpp.ini
attr iterationvars ""
attr iterationvars2 $repetition=0
attr measurement ""
attr network PacketBouncewithTCP
attr processid 32220
attr repetition 0
attr replication #0
attr resultdir results
attr runnumber 0
attr seedset 0

vector 23  PacketBouncewithTCP.server3.eth[0].queue.pauseQueue  queueLength:vector  ETV
attr interpolationmode  sample-hold
attr title  "queue length, vector"
vector 27  PacketBouncewithTCP.server3.eth[0].queue.passBackQueue  queueLength:vector  ETV
attr interpolationmode  sample-hold
attr title  "queue length, vector"
vector 31  PacketBouncewithTCP.server3.eth[0].queue.dataQueue  queueLength:vector  ETV
attr interpolationmode  sample-hold
attr title  "queue length, vector"
vector 64  PacketBouncewithTCP.client.eth[0].queue.pauseQueue  queueLength:vector  ETV
attr interpolationmode  sample-hold
attr title  "queue length, vector"
vector 68  PacketBouncewithTCP.client.eth[0].queue.passBackQueue  queueLength:vector  ETV
attr interpolationmode  sample-hold
attr title  "queue length, vector"
vector 72  PacketBouncewithTCP.client.eth[0].queue.dataQueue  queueLength:vector  ETV
attr interpolationmode  sample-hold
attr title  "queue length, vector"
vector 96  PacketBouncewithTCP.server1.eth[0].queue.pauseQueue  queueLength:vector  ETV
attr interpolationmode  sample-hold
attr title  "queue length, vector"
vector 100  PacketBouncewithTCP.server1.eth[0].queue.passBackQueue  queueLength:vector  ETV
attr interpolationmode  sample-hold
attr title  "queue length, vector"
vector 104  PacketBouncewithTCP.server1.eth[0].queue.dataQueue  queueLength:vector  ETV
attr interpolationmode  sample-hold
attr title  "queue length, vector"
vector 128  PacketBouncewithTCP.server2.eth[0].queue.pauseQueue  queueLength:vector  ETV
attr interpolationmode  sample-hold
attr title  "queue length, vector"
vector 132  PacketBouncewithTCP.server2.eth[0].queue.passBackQueue  queueLength:vector  ETV
attr interpolationmode  sample-hold
attr title  "queue length, vector"
vector 136  PacketBouncewithTCP.server2.eth[0].queue.dataQueue  queueLength:vector  ETV
attr interpolationmode  sample-hold
attr title  "queue length, vector"
vector 151  PacketBouncewithTCP.etherSwitch1.eth[0].queue.pauseQueue  queueLength:vector  ETV
attr interpolationmode  sample-hold
attr title  "queue length, vector"
vector 155  PacketBouncewithTCP.etherSwitch1.eth[0].queue.passBackQueue  queueLength:vector  ETV
attr interpolationmode  sample-hold
attr title  "queue length, vector"
vector 159  PacketBouncewithTCP.etherSwitch1.eth[0].queue.dataQueue  queueLength:vector  ETV
attr interpolationmode  sample-hold
attr title  "queue length, vector"
vector 174  PacketBouncewithTCP.etherSwitch1.eth[1].queue.pauseQueue  queueLength:vector  ETV
attr interpolationmode  sample-hold
attr title  "queue length, vector"
vector 178  PacketBouncewithTCP.etherSwitch1.eth[1].queue.passBackQueue  queueLength:vector  ETV
attr interpolationmode  sample-hold
attr title  "queue length, vector"
vector 182  PacketBouncewithTCP.etherSwitch1.eth[1].queue.dataQueue  queueLength:vector  ETV
attr interpolationmode  sample-hold
attr title  "queue length, vector"
vector 197  PacketBouncewithTCP.etherSwitch2.eth[0].queue.pauseQueue  queueLength:vector  ETV
attr interpolationmode  sample-hold
attr title  "queue length, vector"
vector 201  PacketBouncewithTCP.etherSwitch2.eth[0].queue.passBackQueue  queueLength:vector  ETV
attr interpolationmode  sample-hold
attr title  "queue length, vector"
vector 205  PacketBouncewithTCP.etherSwitch2.eth[0].queue.dataQueue  queueLength:vector  ETV
attr interpolationmode  sample-hold
attr title  "queue length, vector"
vector 220  PacketBouncewithTCP.etherSwitch2.eth[1].queue.pauseQueue  queueLength:vector  ETV
attr interpolationmode  sample-hold
attr title  "queue length, vector"
vector 224  PacketBouncewithTCP.etherSwitch2.eth[1].queue.passBackQueue  queueLength:vector  ETV
attr interpolationmode  sample-hold
attr title  "queue length, vector"
vector 228  PacketBouncewithTCP.etherSwitch2.eth[1].queue.dataQueue  queueLength:vector  ETV
attr interpolationmode  sample-hold
attr title  "queue length, vector"
vector 243  PacketBouncewithTCP.etherSwitch3.eth[0].queue.pauseQueue  queueLength:vector  ETV
attr interpolationmode  sample-hold
attr title  "queue length, vector"
vector 247  PacketBouncewithTCP.etherSwitch3.eth[0].queue.passBackQueue  queueLength:vector  ETV
attr interpolationmode  sample-hold
attr title  "queue length, vector"
vector 251  PacketBouncewithTCP.etherSwitch3.eth[0].queue.dataQueue  queueLength:vector  ETV
attr interpolationmode  sample-hold
attr title  "queue length, vector"
vector 266  PacketBouncewithTCP.etherSwitch3.eth[1].queue.pauseQueue  queueLength:vector  ETV
attr interpolationmode  sample-hold
attr title  "queue length, vector"
vector 270  PacketBouncewithTCP.etherSwitch3.eth[1].queue.passBackQueue  queueLength:vector  ETV
attr interpolationmode  sample-hold
attr title  "queue length, vector"
vector 274  PacketBouncewithTCP.etherSwitch3.eth[1].queue.dataQueue  queueLength:vector  ETV
attr interpolationmode  sample-hold
attr title  "queue length, vector"
vector 289  PacketBouncewithTCP.etherSwitch4.eth[0].queue.pauseQueue  queueLength:vector  ETV
attr interpolationmode  sample-hold
attr title  "queue length, vector"
vector 293  PacketBouncewithTCP.etherSwitch4.eth[0].queue.passBackQueue  queueLength:vector  ETV
attr interpolationmode  sample-hold
attr title  "queue length, vector"
vector 297  PacketBouncewithTCP.etherSwitch4.eth[0].queue.dataQueue  queueLength:vector  ETV
attr interpolationmode  sample-hold
attr title  "queue length, vector"
vector 312  PacketBouncewithTCP.etherSwitch4.eth[1].queue.pauseQueue  queueLength:vector  ETV
attr interpolationmode  sample-hold
attr title  "queue length, vector"
vector 316  PacketBouncewithTCP.etherSwitch4.eth[1].queue.passBackQueue  queueLength:vector  ETV
attr interpolationmode  sample-hold
attr title  "queue length, vector"
vector 320  PacketBouncewithTCP.etherSwitch4.eth[1].queue.dataQueue  queueLength:vector  ETV
attr interpolationmode  sample-hold
attr title  "queue length, vector"
vector 335  PacketBouncewithTCP.etherSwitch5.eth[0].queue.pauseQueue  queueLength:vector  ETV
attr interpolationmode  sample-hold
attr title  "queue length, vector"
vector 339  PacketBouncewithTCP.etherSwitch5.eth[0].queue.passBackQueue  queueLength:vector  ETV
attr interpolationmode  sample-hold
attr title  "queue length, vector"
vector 343  PacketBouncewithTCP.etherSwitch5.eth[0].queue.dataQueue  queueLength:vector  ETV
attr interpolationmode  sample-hold
attr title  "queue length, vector"
vector 358  PacketBouncewithTCP.etherSwitch5.eth[1].queue.pauseQueue  queueLength:vector  ETV
attr interpolationmode  sample-hold
attr title  "queue length, vector"
vector 362  PacketBouncewithTCP.etherSwitch5.eth[1].queue.passBackQueue  queueLength:vector  ETV
attr interpolationmode  sample-hold
attr title  "queue length, vector"
vector 366  PacketBouncewithTCP.etherSwitch5.eth[1].queue.dataQueue  queueLength:vector  ETV
attr interpolationmode  sample-hold
attr title  "queue length, vector"
vector 381  PacketBouncewithTCP.etherSwitch6.eth[0].queue.pauseQueue  queueLength:vector  ETV
attr interpolationmode  sample-hold
attr title  "queue length, vector"
vector 385  PacketBouncewithTCP.etherSwitch6.eth[0].queue.passBackQueue  queueLength:vector  ETV
attr interpolationmode  sample-hold
attr title  "queue length, vector"
vector 389  PacketBouncewithTCP.etherSwitch6.eth[0].queue.dataQueue  queueLength:vector  ETV
attr interpolationmode  sample-hold
attr title  "queue length, vector"
vector 404  PacketBouncewithTCP.etherSwitch6.eth[1].queue.pauseQueue  queueLength:vector  ETV
attr interpolationmode  sample-hold
attr title  "queue length, vector"
vector 408  PacketBouncewithTCP.etherSwitch6.eth[1].queue.passBackQueue  queueLength:vector  ETV
attr interpolationmode  sample-hold
attr title  "queue length, vector"
vector 412  PacketBouncewithTCP.etherSwitch6.eth[1].queue.dataQueue  queueLength:vector  ETV
attr interpolationmode  sample-hold
attr title  "queue length, vector"
vector 427  PacketBouncewithTCP.etherSwitch7.eth[0].queue.pauseQueue  queueLength:vector  ETV
attr interpolationmode  sample-hold
attr title  "queue length, vector"
vector 431  PacketBouncewithTCP.etherSwitch7.eth[0].queue.passBackQueue  queueLength:vector  ETV
attr interpolationmode  sample-hold
attr title  "queue length, vector"
vector 435  PacketBouncewithTCP.etherSwitch7.eth[0].queue.dataQueue  queueLength:vector  ETV
attr interpolationmode  sample-hold
attr title  "queue length, vector"
vector 450  PacketBouncewithTCP.etherSwitch7.eth[1].queue.pauseQueue  queueLength:vector  ETV
attr interpolationmode  sample-hold
attr title  "queue length, vector"
vector 454  PacketBouncewithTCP.etherSwitch7.eth[1].queue.passBackQueue  queueLength:vector  ETV
attr interpolationmode  sample-hold
attr title  "queue length, vector"
vector 458  PacketBouncewithTCP.etherSwitch7.eth[1].queue.dataQueue  queueLength:vector  ETV
attr interpolationmode  sample-hold
attr title  "queue length, vector"
vector 473  PacketBouncewithTCP.etherSwitch7.eth[2].queue.pauseQueue  queueLength:vector  ETV
attr interpolationmode  sample-hold
attr title  "queue length, vector"
vector 477  PacketBouncewithTCP.etherSwitch7.eth[2].queue.passBackQueue  queueLength:vector  ETV
attr interpolationmode  sample-hold
attr title  "queue length, vector"
vector 481  PacketBouncewithTCP.etherSwitch7.eth[2].queue.dataQueue  queueLength:vector  ETV
attr interpolationmode  sample-hold
attr title  "queue length, vector"
vector 496  PacketBouncewithTCP.etherSwitch7.eth[3].queue.pauseQueue  queueLength:vector  ETV
attr interpolationmode  sample-hold
attr title  "queue length, vector"
vector 500  PacketBouncewithTCP.etherSwitch7.eth[3].queue.passBackQueue  queueLength:vector  ETV
attr interpolationmode  sample-hold
attr title  "queue length, vector"
vector 504  PacketBouncewithTCP.etherSwitch7.eth[3].queue.dataQueue  queueLength:vector  ETV
attr interpolationmode  sample-hold
attr title  "queue length, vector"
vector 35  PacketBouncewithTCP.client.tcpApp[0]  numActiveSessions:vector  ETV
attr interpolationmode  sample-hold
attr source  sum(connect)
attr title  "number of active sessions, vector"
vector 39  PacketBouncewithTCP.client.tcpApp[1]  numActiveSessions:vector  ETV
attr interpolationmode  sample-hold
attr source  sum(connect)
attr title  "number of active sessions, vector"
vector 43  PacketBouncewithTCP.client.tcpApp[2]  numActiveSessions:vector  ETV
attr interpolationmode  sample-hold
attr source  sum(connect)
attr title  "number of active sessions, vector"
vector 635  PacketBouncewithTCP.client.tcp  tcpRcvQueueBytes  ETV
vector 616  PacketBouncewithTCP.client.tcp  "advertised window"  ETV
vector 615  PacketBouncewithTCP.client.tcp  "receive window"  ETV
vector 618  PacketBouncewithTCP.client.tcp  "sent ack"  ETV
vector 670  PacketBouncewithTCP.client.tcp  tcpRcvQueueBytes  ETV
vector 651  PacketBouncewithTCP.client.tcp  "advertised window"  ETV
vector 650  PacketBouncewithTCP.client.tcp  "receive window"  ETV
vector 653  PacketBouncewithTCP.client.tcp  "sent ack"  ETV
vector 705  PacketBouncewithTCP.client.tcp  tcpRcvQueueBytes  ETV
vector 686  PacketBouncewithTCP.client.tcp  "advertised window"  ETV
vector 685  PacketBouncewithTCP.client.tcp  "receive window"  ETV
vector 688  PacketBouncewithTCP.client.tcp  "sent ack"  ETV
vector 44  PacketBouncewithTCP.client.networkLayer.arp  sentReq:vector  ETV
attr title  "ARP request sent, vector"
vector 58  PacketBouncewithTCP.client.eth[0].encap  encapPk:vector(packetBytes)  ETV
attr interpolationmode  none
attr source  encapPk
attr title  "packets encapsulated, vector(packetBytes)"
vector 69  PacketBouncewithTCP.client.eth[0].queue.dataQueue  rcvdPk:vector(packetBytes)  ETV
attr interpolationmode  none
attr title  "received packets, vector(packetBytes)"
vector 71  PacketBouncewithTCP.client.eth[0].queue.dataQueue  queueingTime:vector  ETV
attr interpolationmode  none
attr title  "queueing time, vector"
vector 54  PacketBouncewithTCP.client.eth[0].mac  rxPkFromHL:vector(packetBytes)  ETV
attr interpolationmode  none
attr source  rxPkFromHL
attr title  "packet bytes from higher layer, vector(packetBytes)"
vector 49  PacketBouncewithTCP.client.eth[0].mac  txPk:vector(packetBytes)  ETV
attr interpolationmode  none
attr source  txPk
attr title  "packets transmitted, vector(packetBytes)"
vector 483  PacketBouncewithTCP.etherSwitch7.eth[3].mac  rxPkOk:vector(packetBytes)  ETV
attr interpolationmode  none
attr source  rxPkOk
attr title  "packets received OK, vector(packetBytes)"
vector 484  PacketBouncewithTCP.etherSwitch7.eth[3].mac  passedUpPk:vector(packetBytes)  ETV
attr interpolationmode  none
attr source  packetSentToUpper
attr title  "packets passed to higher layer, vector(packetBytes)"
vector 432  PacketBouncewithTCP.etherSwitch7.eth[0].queue.dataQueue  rcvdPk:vector(packetBytes)  ETV
attr interpolationmode  none
attr title  "received packets, vector(packetBytes)"
vector 434  PacketBouncewithTCP.etherSwitch7.eth[0].queue.dataQueue  queueingTime:vector  ETV
attr interpolationmode  none
attr title  "queueing time, vector"
vector 455  PacketBouncewithTCP.etherSwitch7.eth[1].queue.dataQueue  rcvdPk:vector(packetBytes)  ETV
attr interpolationmode  none
attr title  "received packets, vector(packetBytes)"
vector 457  PacketBouncewithTCP.etherSwitch7.eth[1].queue.dataQueue  queueingTime:vector  ETV
attr interpolationmode  none
attr title  "queueing time, vector"
vector 478  PacketBouncewithTCP.etherSwitch7.eth[2].queue.dataQueue  rcvdPk:vector(packetBytes)  ETV
attr interpolationmode  none
attr title  "received packets, vector(packetBytes)"
vector 480  PacketBouncewithTCP.etherSwitch7.eth[2].queue.dataQueue  queueingTime:vector  ETV
attr interpolationmode  none
attr title  "queueing time, vector"
vector 418  PacketBouncewithTCP.etherSwitch7.eth[0].mac  rxPkFromHL:vector(packetBytes)  ETV
attr interpolationmode  none
attr source  rxPkFromHL
attr title  "packet bytes from higher layer, vector(packetBytes)"
vector 441  PacketBouncewithTCP.etherSwitch7.eth[1].mac  rxPkFromHL:vector(packetBytes)  ETV
attr interpolationmode  none
attr source  rxPkFromHL
attr title  "packet bytes from higher layer, vector(packetBytes)"
vector 464  PacketBouncewithTCP.etherSwitch7.eth[2].mac  rxPkFromHL:vector(packetBytes)  ETV
attr interpolationmode  none
attr source  rxPkFromHL
attr title  "packet bytes from higher layer, vector(packetBytes)"
vector 413  PacketBouncewithTCP.etherSwitch7.eth[0].mac  txPk:vector(packetBytes)  ETV
attr interpolationmode  none
attr source  txPk
attr title  "packets transmitted, vector(packetBytes)"
vector 436  PacketBouncewithTCP.etherSwitch7.eth[1].mac  txPk:vector(packetBytes)  ETV
attr interpolationmode  none
attr source  txPk
attr title  "packets transmitted, vector(packetBytes)"
vector 459  PacketBouncewithTCP.etherSwitch7.eth[2].mac  txPk:vector(packetBytes)  ETV
attr interpolationmode  none
attr source  txPk
attr title  "packets transmitted, vector(packetBytes)"
vector 299  PacketBouncewithTCP.etherSwitch4.eth[1].mac  rxPkOk:vector(packetBytes)  ETV
attr interpolationmode  none
attr source  rxPkOk
attr title  "packets received OK, vector(packetBytes)"
vector 300  PacketBouncewithTCP.etherSwitch4.eth[1].mac  passedUpPk:vector(packetBytes)  ETV
attr interpolationmode  none
attr source  packetSentToUpper
attr title  "packets passed to higher layer, vector(packetBytes)"
vector 345  PacketBouncewithTCP.etherSwitch5.eth[1].mac  rxPkOk:vector(packetBytes)  ETV
attr interpolationmode  none
attr source  rxPkOk
attr title  "packets received OK, vector(packetBytes)"
vector 346  PacketBouncewithTCP.etherSwitch5.eth[1].mac  passedUpPk:vector(packetBytes)  ETV
attr interpolationmode  none
attr source  packetSentToUpper
attr title  "packets passed to higher layer, vector(packetBytes)"
vector 391  PacketBouncewithTCP.etherSwitch6.eth[1].mac  rxPkOk:vector(packetBytes)  ETV
attr interpolationmode  none
attr source  rxPkOk
attr title  "packets received OK, vector(packetBytes)"
vector 392  PacketBouncewithTCP.etherSwitch6.eth[1].mac  passedUpPk:vector(packetBytes)  ETV
attr interpolationmode  none
attr source  packetSentToUpper
attr title  "packets passed to higher layer, vector(packetBytes)"
vector 294  PacketBouncewithTCP.etherSwitch4.eth[0].queue.dataQueue  rcvdPk:vector(packetBytes)  ETV
attr interpolationmode  none
attr title  "received packets, vector(packetBytes)"
vector 296  PacketBouncewithTCP.etherSwitch4.eth[0].queue.dataQueue  queueingTime:vector  ETV
attr interpolationmode  none
attr title  "queueing time, vector"
vector 340  PacketBouncewithTCP.etherSwitch5.eth[0].queue.dataQueue  rcvdPk:vector(packetBytes)  ETV
attr interpolationmode  none
attr title  "received packets, vector(packetBytes)"
vector 342  PacketBouncewithTCP.etherSwitch5.eth[0].queue.dataQueue  queueingTime:vector  ETV
attr interpolationmode  none
attr title  "queueing time, vector"
vector 386  PacketBouncewithTCP.etherSwitch6.eth[0].queue.dataQueue  rcvdPk:vector(packetBytes)  ETV
attr interpolationmode  none
attr title  "received packets, vector(packetBytes)"
vector 388  PacketBouncewithTCP.etherSwitch6.eth[0].queue.dataQueue  queueingTime:vector  ETV
attr interpolationmode  none
attr title  "queueing time, vector"
vector 280  PacketBouncewithTCP.etherSwitch4.eth[0].mac  rxPkFromHL:vector(packetBytes)  ETV
attr interpolationmode  none
attr source  rxPkFromHL
attr title  "packet bytes from higher layer, vector(packetBytes)"
vector 326  PacketBouncewithTCP.etherSwitch5.eth[0].mac  rxPkFromHL:vector(packetBytes)  ETV
attr interpolationmode  none
attr source  rxPkFromHL
attr title  "packet bytes from higher layer, vector(packetBytes)"
vector 372  PacketBouncewithTCP.etherSwitch6.eth[0].mac  rxPkFromHL:vector(packetBytes)  ETV
attr interpolationmode  none
attr source  rxPkFromHL
attr title  "packet bytes from higher layer, vector(packetBytes)"
vector 275  PacketBouncewithTCP.etherSwitch4.eth[0].mac  txPk:vector(packetBytes)  ETV
attr interpolationmode  none
attr source  txPk
attr title  "packets transmitted, vector(packetBytes)"
vector 321  PacketBouncewithTCP.etherSwitch5.eth[0].mac  txPk:vector(packetBytes)  ETV
attr interpolationmode  none
attr source  txPk
attr title  "packets transmitted, vector(packetBytes)"
vector 367  PacketBouncewithTCP.etherSwitch6.eth[0].mac  txPk:vector(packetBytes)  ETV
attr interpolationmode  none
attr source  txPk
attr title  "packets transmitted, vector(packetBytes)"
vector 161  PacketBouncewithTCP.etherSwitch1.eth[1].mac  rxPkOk:vector(packetBytes)  ETV
attr interpolationmode  none
attr source  rxPkOk
attr title  "packets received OK, vector(packetBytes)"
vector 162  PacketBouncewithTCP.etherSwitch1.eth[1].mac  passedUpPk:vector(packetBytes)  ETV
attr interpolationmode  none
attr source  packetSentToUpper
attr title  "packets passed to higher layer, vector(packetBytes)"
vector 207  PacketBouncewithTCP.etherSwitch2.eth[1].mac  rxPkOk:vector(packetBytes)  ETV
attr interpolationmode  none
attr source  rxPkOk
attr title  "packets received OK, vector(packetBytes)"
vector 208  PacketBouncewithTCP.etherSwitch2.eth[1].mac  passedUpPk:vector(packetBytes)  ETV
attr interpolationmode  none
attr source  packetSentToUpper
attr title  "packets passed to higher layer, vector(packetBytes)"
vector 253  PacketBouncewithTCP.etherSwitch3.eth[1].mac  rxPkOk:vector(packetBytes)  ETV
attr interpolationmode  none
attr source  rxPkOk
attr title  "packets received OK, vector(packetBytes)"
vector 254  PacketBouncewithTCP.etherSwitch3.eth[1].mac  passedUpPk:vector(packetBytes)  ETV
attr interpolationmode  none
attr source  packetSentToUpper
attr title  "packets passed to higher layer, vector(packetBytes)"
vector 156  PacketBouncewithTCP.etherSwitch1.eth[0].queue.dataQueue  rcvdPk:vector(packetBytes)  ETV
attr interpolationmode  none
attr title  "received packets, vector(packetBytes)"
vector 158  PacketBouncewithTCP.etherSwitch1.eth[0].queue.dataQueue  queueingTime:vector  ETV
attr interpolationmode  none
attr title  "queueing time, vector"
vector 202  PacketBouncewithTCP.etherSwitch2.eth[0].queue.dataQueue  rcvdPk:vector(packetBytes)  ETV
attr interpolationmode  none
attr title  "received packets, vector(packetBytes)"
vector 204  PacketBouncewithTCP.etherSwitch2.eth[0].queue.dataQueue  queueingTime:vector  ETV
attr interpolationmode  none
attr title  "queueing time, vector"
vector 248  PacketBouncewithTCP.etherSwitch3.eth[0].queue.dataQueue  rcvdPk:vector(packetBytes)  ETV
attr interpolationmode  none
attr title  "received packets, vector(packetBytes)"
vector 250  PacketBouncewithTCP.etherSwitch3.eth[0].queue.dataQueue  queueingTime:vector  ETV
attr interpolationmode  none
attr title  "queueing time, vector"
vector 142  PacketBouncewithTCP.etherSwitch1.eth[0].mac  rxPkFromHL:vector(packetBytes)  ETV
attr interpolationmode  none
attr source  rxPkFromHL
attr title  "packet bytes from higher layer, vector(packetBytes)"
vector 188  PacketBouncewithTCP.etherSwitch2.eth[0].mac  rxPkFromHL:vector(packetBytes)  ETV
attr interpolationmode  none
attr source  rxPkFromHL
attr title  "packet bytes from higher layer, vector(packetBytes)"
vector 234  PacketBouncewithTCP.etherSwitch3.eth[0].mac  rxPkFromHL:vector(packetBytes)  ETV
attr interpolationmode  none
attr source  rxPkFromHL
attr title  "packet bytes from higher layer, vector(packetBytes)"
vector 137  PacketBouncewithTCP.etherSwitch1.eth[0].mac  txPk:vector(packetBytes)  ETV
attr interpolationmode  none
attr source  txPk
attr title  "packets transmitted, vector(packetBytes)"
vector 183  PacketBouncewithTCP.etherSwitch2.eth[0].mac  txPk:vector(packetBytes)  ETV
attr interpolationmode  none
attr source  txPk
attr title  "packets transmitted, vector(packetBytes)"
vector 229  PacketBouncewithTCP.etherSwitch3.eth[0].mac  txPk:vector(packetBytes)  ETV
attr interpolationmode  none
attr source  txPk
attr title  "packets transmitted, vector(packetBytes)"
vector 82  PacketBouncewithTCP.server1.eth[0].mac  rxPkOk:vector(packetBytes)  ETV
attr interpolationmode  none
attr source  rxPkOk
attr title  "packets received OK, vector(packetBytes)"
vector 83  PacketBouncewithTCP.server1.eth[0].mac  passedUpPk:vector(packetBytes)  ETV
attr interpolationmode  none
attr source  packetSentToUpper
attr title  "packets passed to higher layer, vector(packetBytes)"
vector 114  PacketBouncewithTCP.server2.eth[0].mac  rxPkOk:vector(packetBytes)  ETV
attr interpolationmode  none
attr source  rxPkOk
attr title  "packets received OK, vector(packetBytes)"
vector 115  PacketBouncewithTCP.server2.eth[0].mac  passedUpPk:vector(packetBytes)  ETV
attr interpolationmode  none
attr source  packetSentToUpper
attr title  "packets passed to higher layer, vector(packetBytes)"
vector 9  PacketBouncewithTCP.server3.eth[0].mac  rxPkOk:vector(packetBytes)  ETV
attr interpolationmode  none
attr source  rxPkOk
attr title  "packets received OK, vector(packetBytes)"
vector 10  PacketBouncewithTCP.server3.eth[0].mac  passedUpPk:vector(packetBytes)  ETV
attr interpolationmode  none
attr source  packetSentToUpper
attr title  "packets passed to higher layer, vector(packetBytes)"
vector 91  PacketBouncewithTCP.server1.eth[0].encap  decapPk:vector(packetBytes)  ETV
attr interpolationmode  none
attr source  decapPk
attr title  "packets decapsulated, vector(packetBytes)"
vector 123  PacketBouncewithTCP.server2.eth[0].encap  decapPk:vector(packetBytes)  ETV
attr interpolationmode  none
attr source  decapPk
attr title  "packets decapsulated, vector(packetBytes)"
vector 18  PacketBouncewithTCP.server3.eth[0].encap  decapPk:vector(packetBytes)  ETV
attr interpolationmode  none
attr source  decapPk
attr title  "packets decapsulated, vector(packetBytes)"
vector 77  PacketBouncewithTCP.server1.networkLayer.arp  sentReply:vector  ETV
attr title  "ARP replies sent, vector"
vector 90  PacketBouncewithTCP.server1.eth[0].encap  encapPk:vector(packetBytes)  ETV
attr interpolationmode  none
attr source  encapPk
attr title  "packets encapsulated, vector(packetBytes)"
vector 101  PacketBouncewithTCP.server1.eth[0].queue.dataQueue  rcvdPk:vector(packetBytes)  ETV
attr interpolationmode  none
attr title  "received packets, vector(packetBytes)"
vector 103  PacketBouncewithTCP.server1.eth[0].queue.dataQueue  queueingTime:vector  ETV
attr interpolationmode  none
attr title  "queueing time, vector"
vector 86  PacketBouncewithTCP.server1.eth[0].mac  rxPkFromHL:vector(packetBytes)  ETV
attr interpolationmode  none
attr source  rxPkFromHL
attr title  "packet bytes from higher layer, vector(packetBytes)"
vector 81  PacketBouncewithTCP.server1.eth[0].mac  txPk:vector(packetBytes)  ETV
attr interpolationmode  none
attr source  txPk
attr title  "packets transmitted, vector(packetBytes)"
vector 138  PacketBouncewithTCP.etherSwitch1.eth[0].mac  rxPkOk:vector(packetBytes)  ETV
attr interpolationmode  none
attr source  rxPkOk
attr title  "packets received OK, vector(packetBytes)"
vector 139  PacketBouncewithTCP.etherSwitch1.eth[0].mac  passedUpPk:vector(packetBytes)  ETV
attr interpolationmode  none
attr source  packetSentToUpper
attr title  "packets passed to higher layer, vector(packetBytes)"
vector 179  PacketBouncewithTCP.etherSwitch1.eth[1].queue.dataQueue  rcvdPk:vector(packetBytes)  ETV
attr interpolationmode  none
attr title  "received packets, vector(packetBytes)"
vector 181  PacketBouncewithTCP.etherSwitch1.eth[1].queue.dataQueue  queueingTime:vector  ETV
attr interpolationmode  none
attr title  "queueing time, vector"
vector 165  PacketBouncewithTCP.etherSwitch1.eth[1].mac  rxPkFromHL:vector(packetBytes)  ETV
attr interpolationmode  none
attr source  rxPkFromHL
attr title  "packet bytes from higher layer, vector(packetBytes)"
vector 109  PacketBouncewithTCP.server2.networkLayer.arp  sentReply:vector  ETV
attr title  "ARP replies sent, vector"
vector 122  PacketBouncewithTCP.server2.eth[0].encap  encapPk:vector(packetBytes)  ETV
attr interpolationmode  none
attr source  encapPk
attr title  "packets encapsulated, vector(packetBytes)"
vector 133  PacketBouncewithTCP.server2.eth[0].queue.dataQueue  rcvdPk:vector(packetBytes)  ETV
attr interpolationmode  none
attr title  "received packets, vector(packetBytes)"
vector 135  PacketBouncewithTCP.server2.eth[0].queue.dataQueue  queueingTime:vector  ETV
attr interpolationmode  none
attr title  "queueing time, vector"
vector 118  PacketBouncewithTCP.server2.eth[0].mac  rxPkFromHL:vector(packetBytes)  ETV
attr interpolationmode  none
attr source  rxPkFromHL
attr title  "packet bytes from higher layer, vector(packetBytes)"
vector 160  PacketBouncewithTCP.etherSwitch1.eth[1].mac  txPk:vector(packetBytes)  ETV
attr interpolationmode  none
attr source  txPk
attr title  "packets transmitted, vector(packetBytes)"
vector 113  PacketBouncewithTCP.server2.eth[0].mac  txPk:vector(packetBytes)  ETV
attr interpolationmode  none
attr source  txPk
attr title  "packets transmitted, vector(packetBytes)"
vector 276  PacketBouncewithTCP.etherSwitch4.eth[0].mac  rxPkOk:vector(packetBytes)  ETV
attr interpolationmode  none
attr source  rxPkOk
attr title  "packets received OK, vector(packetBytes)"
vector 277  PacketBouncewithTCP.etherSwitch4.eth[0].mac  passedUpPk:vector(packetBytes)  ETV
attr interpolationmode  none
attr source  packetSentToUpper
attr title  "packets passed to higher layer, vector(packetBytes)"
vector 317  PacketBouncewithTCP.etherSwitch4.eth[1].queue.dataQueue  rcvdPk:vector(packetBytes)  ETV
attr interpolationmode  none
attr title  "received packets, vector(packetBytes)"
vector 319  PacketBouncewithTCP.etherSwitch4.eth[1].queue.dataQueue  queueingTime:vector  ETV
attr interpolationmode  none
attr title  "queueing time, vector"
vector 303  PacketBouncewithTCP.etherSwitch4.eth[1].mac  rxPkFromHL:vector(packetBytes)  ETV
attr interpolationmode  none
attr source  rxPkFromHL
attr title  "packet bytes from higher layer, vector(packetBytes)"
vector 184  PacketBouncewithTCP.etherSwitch2.eth[0].mac  rxPkOk:vector(packetBytes)  ETV
attr interpolationmode  none
attr source  rxPkOk
attr title  "packets received OK, vector(packetBytes)"
vector 185  PacketBouncewithTCP.etherSwitch2.eth[0].mac  passedUpPk:vector(packetBytes)  ETV
attr interpolationmode  none
attr source  packetSentToUpper
attr title  "packets passed to higher layer, vector(packetBytes)"
vector 225  PacketBouncewithTCP.etherSwitch2.eth[1].queue.dataQueue  rcvdPk:vector(packetBytes)  ETV
attr interpolationmode  none
attr title  "received packets, vector(packetBytes)"
vector 227  PacketBouncewithTCP.etherSwitch2.eth[1].queue.dataQueue  queueingTime:vector  ETV
attr interpolationmode  none
attr title  "queueing time, vector"
vector 211  PacketBouncewithTCP.etherSwitch2.eth[1].mac  rxPkFromHL:vector(packetBytes)  ETV
attr interpolationmode  none
attr source  rxPkFromHL
attr title  "packet bytes from higher layer, vector(packetBytes)"
vector 4  PacketBouncewithTCP.server3.networkLayer.arp  sentReply:vector  ETV
attr title  "ARP replies sent, vector"
vector 17  PacketBouncewithTCP.server3.eth[0].encap  encapPk:vector(packetBytes)  ETV
attr interpolationmode  none
attr source  encapPk
attr title  "packets encapsulated, vector(packetBytes)"
vector 28  PacketBouncewithTCP.server3.eth[0].queue.dataQueue  rcvdPk:vector(packetBytes)  ETV
attr interpolationmode  none
attr title  "received packets, vector(packetBytes)"
vector 30  PacketBouncewithTCP.server3.eth[0].queue.dataQueue  queueingTime:vector  ETV
attr interpolationmode  none
attr title  "queueing time, vector"
vector 13  PacketBouncewithTCP.server3.eth[0].mac  rxPkFromHL:vector(packetBytes)  ETV
attr interpolationmode  none
attr source  rxPkFromHL